 *******************************************************************************
 ** Site#: 30659        For non-commercial use only    Version 20.225L 64BITS **
 *******************************************************************************
 ** Cite this program as: MOPAC2016, Version: 20.225L, James J. P. Stewart,   **
 ** Stewart Computational Chemistry, web: HTTP://OpenMOPAC.net. Days left: 189**
 *******************************************************************************
 **                                                                           **
 **                                MOPAC2016                                  **
 **                                                                           **
 *******************************************************************************

                              PM7 CALCULATION RESULTS

 *******************************************************************************
 *  CALCULATION DONE:                                Fri Feb  5 16:06:46 2021  *
 *  PM7        - The PM7 Hamiltonian to be used
 *  SINGLET    - SPIN STATE DEFINED AS A SINGLET
 *
 *
 *
 *                 CHARGE ON SYSTEM = 0
 *
 *
 *
 *  T=         - A TIME OF 172800.0 SECONDS REQUESTED
 *  DUMP=N     - RESTART FILE WRITTEN EVERY 7200.0 SECONDS REQUESTED
 *  AUX        - OUTPUT AUXILIARY INFORMATION
 *  LARGE      - EXPANDED OUTPUT TO BE PRINTED
 *******************************************************************************
 AUX LARGE CHARGE=0 SINGLET  PM7
 C7

   ATOM   CHEMICAL          X               Y               Z
  NUMBER   SYMBOL      (ANGSTROMS)     (ANGSTROMS)     (ANGSTROMS)
 
     1       C         -3.47574000  *   0.33995000  *   0.88769000  *
     2       C         -3.31440000  *   0.82231000  *  -0.55868000  *
     3       C         -1.96913000  *   0.59995000  *  -1.25974000  *
     4       H         -3.55643000  *   1.90799000  *  -0.54285000  *
     5       H         -4.07580000  *   0.33390000  *  -1.20619000  *
     6       C         -0.71412000  *   0.78816000  *  -0.40555000  *
     7       H         -1.95127000  *   1.30310000  *  -2.12128000  *
     8       H         -1.93276000  *  -0.42370000  *  -1.69440000  *
     9       C         -2.81073000  *  -0.99126000  *   1.24224000  *
    10       H         -4.57098000  *   0.27821000  *   1.07103000  *
    11       H         -3.08695000  *   1.11056000  *   1.58992000  *
    12       C         -1.31809000  *  -0.81035000  *   1.57459000  *
    13       C         -0.38557000  *  -0.47695000  *   0.40853000  *
    14       H         -3.00580000  *  -1.77716000  *   0.48140000  *
    15       H         -3.27459000  *  -1.32392000  *   2.19700000  *
    16       H         -0.94874000  *  -1.76008000  *   2.02002000  *
    17       H         -1.21506000  *  -0.02442000  *   2.35520000  *
    18       H         -0.34402000  *  -1.34894000  *  -0.28108000  *
    19       H          0.63327000  *  -0.35362000  *   0.83697000  *
    20       H         -0.75463000  *   1.71426000  *   0.20705000  *
    21       H          0.13270000  *   0.89289000  *  -1.11922000  *
 


          CARTESIAN COORDINATES 

    NO.       ATOM           X           Y           Z

     1         C         -3.4757      0.3400      0.8877
     2         C         -3.3144      0.8223     -0.5587
     3         C         -1.9691      0.5999     -1.2597
     4         H         -3.5564      1.9080     -0.5429
     5         H         -4.0758      0.3339     -1.2062
     6         C         -0.7141      0.7882     -0.4056
     7         H         -1.9513      1.3031     -2.1213
     8         H         -1.9328     -0.4237     -1.6944
     9         C         -2.8107     -0.9913      1.2422
    10         H         -4.5710      0.2782      1.0710
    11         H         -3.0869      1.1106      1.5899
    12         C         -1.3181     -0.8104      1.5746
    13         C         -0.3856     -0.4770      0.4085
    14         H         -3.0058     -1.7772      0.4814
    15         H         -3.2746     -1.3239      2.1970
    16         H         -0.9487     -1.7601      2.0200
    17         H         -1.2151     -0.0244      2.3552
    18         H         -0.3440     -1.3489     -0.2811
    19         H          0.6333     -0.3536      0.8370
    20         H         -0.7546      1.7143      0.2071
    21         H          0.1327      0.8929     -1.1192

 General Reference for PM7:
 "Optimization of Parameters for Semiempirical Methods VI: More Modifications to the 
 NDDO Approximations and Re-optimization of Parameters", J. J. P. Stewart, J. Mol. Mod., 1:32, 19 (2013)
 https://link.springer.com/article/10.1007/s00894-012-1667-x

           Empirical Formula: C7 H14  =    21 atoms



      MOLECULAR POINT GROUP   :   C2  


 SINGLET STATE CALCULATION


      RHF CALCULATION, NO. OF DOUBLY OCCUPIED LEVELS = 21


          Geometry optimization using EF

          DIAGONAL MATRIX USED AS START HESSIAN

 CYCLE:     1 TIME:   0.016 TIME LEFT:  2.00D  GRAD.:    25.566 HEAT: -23.54209
 CYCLE:     2 TIME:   0.008 TIME LEFT:  2.00D  GRAD.:    37.824 HEAT: -24.00481
 CYCLE:     3 TIME:   0.012 TIME LEFT:  2.00D  GRAD.:    37.709 HEAT: -24.35196
 CYCLE:     4 TIME:   0.004 TIME LEFT:  2.00D  GRAD.:    29.202 HEAT: -24.95994
 CYCLE:     5 TIME:   0.012 TIME LEFT:  2.00D  GRAD.:    22.116 HEAT: -25.28720
 CYCLE:     6 TIME:   0.004 TIME LEFT:  2.00D  GRAD.:    23.683 HEAT: -25.51843
 CYCLE:     7 TIME:   0.008 TIME LEFT:  2.00D  GRAD.:    22.027 HEAT: -25.84024
 CYCLE:     8 TIME:   0.012 TIME LEFT:  2.00D  GRAD.:    25.901 HEAT: -26.00383
 CYCLE:     9 TIME:   0.004 TIME LEFT:  2.00D  GRAD.:    20.500 HEAT: -26.28022
 CYCLE:    10 TIME:   0.008 TIME LEFT:  2.00D  GRAD.:    24.360 HEAT: -26.45396
 CYCLE:    11 TIME:   0.004 TIME LEFT:  2.00D  GRAD.:    16.858 HEAT: -26.83846
 CYCLE:    12 TIME:   0.004 TIME LEFT:  2.00D  GRAD.:    20.402 HEAT: -27.05937
 CYCLE:    13 TIME:   0.012 TIME LEFT:  2.00D  GRAD.:    24.551 HEAT: -27.16092
 CYCLE:    14 TIME:   0.008 TIME LEFT:  2.00D  GRAD.:    20.056 HEAT: -27.36110
 CYCLE:    15 TIME:   0.008 TIME LEFT:  2.00D  GRAD.:    11.382 HEAT: -27.54487
 CYCLE:    16 TIME:   0.008 TIME LEFT:  2.00D  GRAD.:     8.943 HEAT: -27.60732
 CYCLE:    17 TIME:   0.008 TIME LEFT:  2.00D  GRAD.:     6.097 HEAT: -27.66747
 CYCLE:    18 TIME:   0.008 TIME LEFT:  2.00D  GRAD.:     5.307 HEAT: -27.70275
 CYCLE:    19 TIME:   0.008 TIME LEFT:  2.00D  GRAD.:     4.840 HEAT: -27.73045
 CYCLE:    20 TIME:   0.008 TIME LEFT:  2.00D  GRAD.:     4.218 HEAT: -27.75280
 CYCLE:    21 TIME:   0.012 TIME LEFT:  2.00D  GRAD.:     4.656 HEAT: -27.77138
 CYCLE:    22 TIME:   0.008 TIME LEFT:  2.00D  GRAD.:     3.874 HEAT: -27.79378
 CYCLE:    23 TIME:   0.008 TIME LEFT:  2.00D  GRAD.:     3.914 HEAT: -27.80833
 CYCLE:    24 TIME:   0.008 TIME LEFT:  2.00D  GRAD.:     3.397 HEAT: -27.82156
 CYCLE:    25 TIME:   0.008 TIME LEFT:  2.00D  GRAD.:     3.318 HEAT: -27.83068
 CYCLE:    26 TIME:   0.008 TIME LEFT:  2.00D  GRAD.:     1.770 HEAT: -27.83859
 CYCLE:    27 TIME:   0.008 TIME LEFT:  2.00D  GRAD.:     1.490 HEAT: -27.84261
 CYCLE:    28 TIME:   0.008 TIME LEFT:  2.00D  GRAD.:     1.809 HEAT: -27.84626
 CYCLE:    29 TIME:   0.008 TIME LEFT:  2.00D  GRAD.:     1.638 HEAT: -27.84919
 CYCLE:    30 TIME:   0.008 TIME LEFT:  2.00D  GRAD.:     1.159 HEAT: -27.85221
 CYCLE:    31 TIME:   0.008 TIME LEFT:  2.00D  GRAD.:     1.395 HEAT: -27.85674
 CYCLE:    32 TIME:   0.008 TIME LEFT:  2.00D  GRAD.:     1.569 HEAT: -27.86019
 CYCLE:    33 TIME:   0.008 TIME LEFT:  2.00D  GRAD.:     1.720 HEAT: -27.86582
 CYCLE:    34 TIME:   0.008 TIME LEFT:  2.00D  GRAD.:     1.566 HEAT: -27.87093
 CYCLE:    35 TIME:   0.008 TIME LEFT:  2.00D  GRAD.:     1.432 HEAT: -27.87618
 CYCLE:    36 TIME:   0.004 TIME LEFT:  2.00D  GRAD.:     1.077 HEAT: -27.87887
 CYCLE:    37 TIME:   0.008 TIME LEFT:  2.00D  GRAD.:     0.757 HEAT: -27.88118

     GRADIENT =  0.75742 IS LESS THAN CUTOFF =  1.00000



 -------------------------------------------------------------------------------
 AUX LARGE CHARGE=0 SINGLET  PM7
 C7



     GEOMETRY OPTIMISED USING EIGENVECTOR FOLLOWING (EF).     
     SCF FIELD WAS ACHIEVED                                   


                              PM7 CALCULATION
                                                       MOPAC2016 (Version: 20.225L)
                                                       Fri Feb  5 16:06:46 2021
                                                       No. of days remaining = 189




          FINAL HEAT OF FORMATION =        -27.88118 KCAL/MOL =    -116.65486 KJ/MOL


          TOTAL ENERGY            =      -1049.45976 EV
          ELECTRONIC ENERGY       =      -5537.75419 EV  POINT GROUP:     C2  
          CORE-CORE REPULSION     =       4488.29443 EV
          COSMO AREA              =        147.51 SQUARE ANGSTROMS
          COSMO VOLUME            =        148.54 CUBIC ANGSTROMS

          GRADIENT NORM           =          0.75742 = 0.16528 PER ATOM
          IONIZATION POTENTIAL    =         10.804989 EV
          HOMO LUMO ENERGIES (EV) =        -10.805  4.156
          NO. OF FILLED LEVELS    =         21
          MOLECULAR WEIGHT        =         98.1876

          MOLECULAR DIMENSIONS (Angstroms)

            Atom       Atom       Distance
            H    19    H     5     5.23841
            H    15    H     7     5.07959
            H    11    H    18     3.30182


          SCF CALCULATIONS        =         42
 
          WALL-CLOCK TIME         =          0.320 SECONDS
          COMPUTATION TIME        =          3.640 SECONDS




   ATOM   CHEMICAL          X               Y               Z
  NUMBER   SYMBOL      (ANGSTROMS)     (ANGSTROMS)     (ANGSTROMS)
 
     1       C         -3.42956577  *   0.39815820  *   0.89686206  *
     2       C         -3.33574027  *   0.83685567  *  -0.57219004  *
     3       C         -1.99624949  *   0.52765794  *  -1.25682059  *
     4       H         -3.53168163  *   1.92529570  *  -0.62890962  *
     5       H         -4.14809648  *   0.35418259  *  -1.14964458  *
     6       C         -0.77521599  *   0.76688524  *  -0.35780881  *
     7       H         -1.91257936  *   1.14746269  *  -2.17036851  *
     8       H         -1.99560838  *  -0.52040702  *  -1.61298694  *
     9       C         -2.77002841  *  -0.95837298  *   1.18181141  *
    10       H         -4.49690441  *   0.35849659  *   1.18835420  *
    11       H         -2.97867545  *   1.17430855  *   1.54456055  *
    12       C         -1.29849813  *  -0.80361399  *   1.59270741  *
    13       C         -0.37240644  *  -0.50164417  *   0.40796721  *
    14       H         -2.85438208  *  -1.61867515  *   0.29991750  *
    15       H         -3.31965393  *  -1.47150397  *   1.99372550  *
    16       H         -0.95697822  *  -1.73144627  *   2.09067654  *
    17       H         -1.20523811  *  -0.00540287  *   2.35338905  *
    18       H         -0.35246396  *  -1.36581428  *  -0.28217152  *
    19       H          0.66479409  *  -0.39140711  *   0.77936441  *
    20       H         -0.97674322  *   1.58958637  *   0.35154314  *
    21       H          0.07836974  *   1.10470650  *  -0.97578470  *

                             CARTESIAN COORDINATES

   1    C       -3.429565771     0.398158197     0.896862060
   2    C       -3.335740268     0.836855673    -0.572190039
   3    C       -1.996249491     0.527657943    -1.256820592
   4    H       -3.531681631     1.925295701    -0.628909624
   5    H       -4.148096480     0.354182594    -1.149644584
   6    C       -0.775215989     0.766885238    -0.357808810
   7    H       -1.912579360     1.147462686    -2.170368514
   8    H       -1.995608383    -0.520407017    -1.612986941
   9    C       -2.770028413    -0.958372980     1.181811406
  10    H       -4.496904412     0.358496593     1.188354200
  11    H       -2.978675447     1.174308548     1.544560551
  12    C       -1.298498135    -0.803613988     1.592707410
  13    C       -0.372406441    -0.501644165     0.407967212
  14    H       -2.854382084    -1.618675151     0.299917496
  15    H       -3.319653929    -1.471503974     1.993725495
  16    H       -0.956978217    -1.731446270     2.090676543
  17    H       -1.205238110    -0.005402869     2.353389045
  18    H       -0.352463965    -1.365814280    -0.282171522
  19    H        0.664794088    -0.391407105     0.779364409
  20    H       -0.976743222     1.589586371     0.351543141
  21    H        0.078369744     1.104706499    -0.975784700


           Empirical Formula: C7 H14  =    21 atoms



      MOLECULAR POINT GROUP   :   C2  


                  EIGENVALUES  
 -29.99561 -26.57181 -26.36931 -22.07977 -21.92997 -19.47405 -18.23378 -16.52472
 -15.34435 -15.19250 -14.44130 -13.64313 -13.57420 -12.84885 -12.84254 -11.47257
 -11.43495 -11.19989 -10.99329 -10.87842 -10.80499   4.15568   4.30584   4.35519
   4.57712   4.60872   4.87921   5.10487   5.69235   5.75622   5.92755   6.11403
   6.12612   6.16303   6.26219   6.59362   6.69496   6.76395   6.83415   6.84459
   6.91325   6.92413


              NET ATOMIC CHARGES AND DIPOLE CONTRIBUTIONS

  ATOM NO.   TYPE          CHARGE      No. of ELECS.   s-Pop       p-Pop       
    1          C          -0.260191        4.2602     1.05878     3.20141
    2          C          -0.266787        4.2668     1.05953     3.20726
    3          C          -0.260054        4.2601     1.05877     3.20129
    4          H           0.129089        0.8709     0.87091
    5          H           0.129052        0.8709     0.87095
    6          C          -0.258559        4.2586     1.05789     3.20067
    7          H           0.125526        0.8745     0.87447
    8          H           0.135664        0.8643     0.86434
    9          C          -0.258376        4.2584     1.05786     3.20052
   10          H           0.125480        0.8745     0.87452
   11          H           0.135463        0.8645     0.86454
   12          C          -0.264371        4.2644     1.05950     3.20487
   13          C          -0.264410        4.2644     1.05949     3.20492
   14          H           0.140433        0.8596     0.85957
   15          H           0.125017        0.8750     0.87498
   16          H           0.126784        0.8732     0.87322
   17          H           0.133878        0.8661     0.86612
   18          H           0.133927        0.8661     0.86607
   19          H           0.126824        0.8732     0.87318
   20          H           0.140508        0.8595     0.85949
   21          H           0.125102        0.8749     0.87490
 DIPOLE           X         Y         Z       TOTAL
 POINT-CHG.     0.003    -0.002     0.009     0.009
 HYBRID        -0.011     0.006    -0.004     0.013
 SUM           -0.008     0.004     0.005     0.010


          ATOMIC ORBITAL ELECTRON POPULATIONS

     Atom    s        px        py        pz   
    1  C   1.05878   1.11832   1.05220   1.03089
    2  C   1.05953   1.05089   1.13225   1.02412
    3  C   1.05877   0.99154   1.14905   1.06070
    4  H   0.87091
    5  H   0.87095
    6  C   1.05789   1.05664   1.05869   1.08534
    7  H   0.87447
    8  H   0.86434
    9  C   1.05786   1.01352   1.04472   1.14228
   10  H   0.87452
   11  H   0.86454
   12  C   1.05950   1.00530   1.14506   1.05451
   13  C   1.05949   1.07912   1.06748   1.05832
   14  H   0.85957
   15  H   0.87498
   16  H   0.87322
   17  H   0.86612
   18  H   0.86607
   19  H   0.87318
   20  H   0.85949
   21  H   0.87490

 **********************
 *                    *
 * JOB ENDED NORMALLY *
 *                    *
 **********************



 TOTAL JOB TIME:             0.32 SECONDS

 == MOPAC DONE ==
