 *******************************************************************************
 ** Site#: 30659        For non-commercial use only    Version 20.225L 64BITS **
 *******************************************************************************
 ** Cite this program as: MOPAC2016, Version: 20.225L, James J. P. Stewart,   **
 ** Stewart Computational Chemistry, web: HTTP://OpenMOPAC.net. Days left: 189**
 *******************************************************************************
 **                                                                           **
 **                                MOPAC2016                                  **
 **                                                                           **
 *******************************************************************************

                              PM7 CALCULATION RESULTS

 *******************************************************************************
 *  CALCULATION DONE:                                Fri Feb  5 15:30:20 2021  *
 *  PM7        - The PM7 Hamiltonian to be used
 *  SINGLET    - SPIN STATE DEFINED AS A SINGLET
 *
 *
 *
 *                 CHARGE ON SYSTEM = 0
 *
 *
 *
 *  T=         - A TIME OF 172800.0 SECONDS REQUESTED
 *  DUMP=N     - RESTART FILE WRITTEN EVERY 7200.0 SECONDS REQUESTED
 *  AUX        - OUTPUT AUXILIARY INFORMATION
 *  LARGE      - EXPANDED OUTPUT TO BE PRINTED
 *******************************************************************************
 AUX LARGE CHARGE=0 SINGLET  PM7
 kat0

   ATOM   CHEMICAL          X               Y               Z
  NUMBER   SYMBOL      (ANGSTROMS)     (ANGSTROMS)     (ANGSTROMS)
 
     1       C         -6.94695000  *   0.40249000  *  -0.06427000  *
     2       C         -5.75298000  *   1.32574000  *   0.15722000  *
     3       H         -6.89538000  *  -0.46316000  *   0.62942000  *
     4       H         -6.96238000  *   0.03178000  *  -1.11073000  *
     5       H         -7.88746000  *   0.95829000  *   0.13104000  *
     6       C         -4.43222000  *   0.60041000  *  -0.12519000  *
     7       H         -5.76971000  *   1.68501000  *   1.20903000  *
     8       H         -5.84327000  *   2.20281000  *  -0.52067000  *
     9       C         -3.23365000  *   1.51833000  *   0.14320000  *
    10       H         -4.41991000  *   0.27188000  *  -1.18794000  *
    11       H         -4.35227000  *  -0.29710000  *   0.52754000  *
    12       C         -1.91215000  *   0.81584000  *  -0.20206000  *
    13       H         -3.23305000  *   1.80637000  *   1.21759000  *
    14       H         -3.32992000  *   2.43824000  *  -0.47395000  *
    15       C         -0.68807000  *   1.68746000  *   0.13420000  *
    16       H         -1.90437000  *   0.56375000  *  -1.28555000  *
    17       H         -1.84096000  *  -0.12984000  *   0.37860000  *
    18       N         -0.75068000  *   2.96134000  *  -0.58273000  *
    19       H         -0.68897000  *   2.79493000  *  -1.61348000  *
    20       H          0.05232000  *   3.56569000  *  -0.29306000  *
    21       N          0.54146000  *   0.97698000  *  -0.22205000  *
    22       H         -0.68863000  *   1.89218000  *   1.22867000  *
    23       H          1.36678000  *   1.56017000  *   0.04686000  *
    24       H          0.59865000  *   0.08562000  *   0.32082000  *
 


          CARTESIAN COORDINATES 

    NO.       ATOM           X           Y           Z

     1         C         -6.9470      0.4025     -0.0643
     2         C         -5.7530      1.3257      0.1572
     3         H         -6.8954     -0.4632      0.6294
     4         H         -6.9624      0.0318     -1.1107
     5         H         -7.8875      0.9583      0.1310
     6         C         -4.4322      0.6004     -0.1252
     7         H         -5.7697      1.6850      1.2090
     8         H         -5.8433      2.2028     -0.5207
     9         C         -3.2336      1.5183      0.1432
    10         H         -4.4199      0.2719     -1.1879
    11         H         -4.3523     -0.2971      0.5275
    12         C         -1.9122      0.8158     -0.2021
    13         H         -3.2330      1.8064      1.2176
    14         H         -3.3299      2.4382     -0.4740
    15         C         -0.6881      1.6875      0.1342
    16         H         -1.9044      0.5638     -1.2855
    17         H         -1.8410     -0.1298      0.3786
    18         N         -0.7507      2.9613     -0.5827
    19         H         -0.6890      2.7949     -1.6135
    20         H          0.0523      3.5657     -0.2931
    21         N          0.5415      0.9770     -0.2220
    22         H         -0.6886      1.8922      1.2287
    23         H          1.3668      1.5602      0.0469
    24         H          0.5987      0.0856      0.3208

 General Reference for PM7:
 "Optimization of Parameters for Semiempirical Methods VI: More Modifications to the 
 NDDO Approximations and Re-optimization of Parameters", J. J. P. Stewart, J. Mol. Mod., 1:32, 19 (2013)
 https://link.springer.com/article/10.1007/s00894-012-1667-x

           Empirical Formula: C6 H16 N2  =    24 atoms



      MOLECULAR POINT GROUP   :   C1  


 SINGLET STATE CALCULATION


      RHF CALCULATION, NO. OF DOUBLY OCCUPIED LEVELS = 25


          Geometry optimization using EF

          DIAGONAL MATRIX USED AS START HESSIAN

 CYCLE:     1 TIME:   0.035 TIME LEFT:  2.00D  GRAD.:    77.088 HEAT: -21.73523
 CYCLE:     2 TIME:   0.020 TIME LEFT:  2.00D  GRAD.:    54.203 HEAT: -24.03700
 CYCLE:     3 TIME:   0.020 TIME LEFT:  2.00D  GRAD.:    35.076 HEAT: -24.99458
 CYCLE:     4 TIME:   0.020 TIME LEFT:  2.00D  GRAD.:    21.741 HEAT: -25.50930
 CYCLE:     5 TIME:   0.008 TIME LEFT:  2.00D  GRAD.:    23.107 HEAT: -25.85995
 CYCLE:     6 TIME:   0.012 TIME LEFT:  2.00D  GRAD.:    26.802 HEAT: -26.00610
 CYCLE:     7 TIME:   0.023 TIME LEFT:  2.00D  GRAD.:    15.915 HEAT: -26.20578
 CYCLE:     8 TIME:   0.020 TIME LEFT:  2.00D  GRAD.:     9.043 HEAT: -26.29314
 CYCLE:     9 TIME:   0.016 TIME LEFT:  2.00D  GRAD.:     6.450 HEAT: -26.32768
 CYCLE:    10 TIME:   0.012 TIME LEFT:  2.00D  GRAD.:     6.276 HEAT: -26.36091
 CYCLE:    11 TIME:   0.008 TIME LEFT:  2.00D  GRAD.:     5.810 HEAT: -26.39323
 CYCLE:    12 TIME:   0.012 TIME LEFT:  2.00D  GRAD.:     6.349 HEAT: -26.42277
 CYCLE:    13 TIME:   0.008 TIME LEFT:  2.00D  GRAD.:     7.463 HEAT: -26.45632
 CYCLE:    14 TIME:   0.016 TIME LEFT:  2.00D  GRAD.:    10.228 HEAT: -26.46455
 CYCLE:    15 TIME:   0.008 TIME LEFT:  2.00D  GRAD.:     6.094 HEAT: -26.52003
 CYCLE:    16 TIME:   0.012 TIME LEFT:  2.00D  GRAD.:     8.739 HEAT: -26.56438
 CYCLE:    17 TIME:   0.008 TIME LEFT:  2.00D  GRAD.:    10.161 HEAT: -26.62185
 CYCLE:    18 TIME:   0.012 TIME LEFT:  2.00D  GRAD.:    13.907 HEAT: -26.66555
 CYCLE:    19 TIME:   0.012 TIME LEFT:  2.00D  GRAD.:    16.623 HEAT: -26.68339
 CYCLE:    20 TIME:   0.008 TIME LEFT:  2.00D  GRAD.:    12.094 HEAT: -26.75385
 CYCLE:    21 TIME:   0.008 TIME LEFT:  2.00D  GRAD.:     6.486 HEAT: -26.84150
 CYCLE:    22 TIME:   0.012 TIME LEFT:  2.00D  GRAD.:     5.339 HEAT: -26.88999
 CYCLE:    23 TIME:   0.012 TIME LEFT:  2.00D  GRAD.:     8.574 HEAT: -26.96214
 CYCLE:    24 TIME:   0.008 TIME LEFT:  2.00D  GRAD.:    10.295 HEAT: -27.05066
 CYCLE:    25 TIME:   0.012 TIME LEFT:  2.00D  GRAD.:    11.597 HEAT: -27.07117
 CYCLE:    26 TIME:   0.020 TIME LEFT:  2.00D  GRAD.:    11.554 HEAT: -27.14700
 CYCLE:    27 TIME:   0.008 TIME LEFT:  2.00D  GRAD.:     8.521 HEAT: -27.19546
 CYCLE:    28 TIME:   0.012 TIME LEFT:  2.00D  GRAD.:     7.633 HEAT: -27.26191
 CYCLE:    29 TIME:   0.008 TIME LEFT:  2.00D  GRAD.:     8.168 HEAT: -27.33048
 CYCLE:    30 TIME:   0.012 TIME LEFT:  2.00D  GRAD.:     7.137 HEAT: -27.41081
 CYCLE:    31 TIME:   0.008 TIME LEFT:  2.00D  GRAD.:    10.419 HEAT: -27.48323
 CYCLE:    32 TIME:   0.020 TIME LEFT:  2.00D  GRAD.:     8.931 HEAT: -27.51254
 CYCLE:    33 TIME:   0.012 TIME LEFT:  2.00D  GRAD.:     6.207 HEAT: -27.57166
 CYCLE:    34 TIME:   0.008 TIME LEFT:  2.00D  GRAD.:     5.703 HEAT: -27.61243
 CYCLE:    35 TIME:   0.012 TIME LEFT:  2.00D  GRAD.:     5.739 HEAT: -27.66327
 CYCLE:    36 TIME:   0.008 TIME LEFT:  2.00D  GRAD.:     5.685 HEAT: -27.73989
 CYCLE:    37 TIME:   0.012 TIME LEFT:  2.00D  GRAD.:     8.793 HEAT: -27.81463
 CYCLE:    38 TIME:   0.023 TIME LEFT:  2.00D  GRAD.:    10.181 HEAT: -27.88407
 CYCLE:    39 TIME:   0.008 TIME LEFT:  2.00D  GRAD.:    12.249 HEAT: -27.90760
 CYCLE:    40 TIME:   0.012 TIME LEFT:  2.00D  GRAD.:    11.952 HEAT: -28.05439
 CYCLE:    41 TIME:   0.008 TIME LEFT:  2.00D  GRAD.:     6.806 HEAT: -28.15155
 CYCLE:    42 TIME:   0.012 TIME LEFT:  2.00D  GRAD.:    12.253 HEAT: -28.22781
 CYCLE:    43 TIME:   0.008 TIME LEFT:  2.00D  GRAD.:    10.194 HEAT: -28.26109
 CYCLE:    44 TIME:   0.012 TIME LEFT:  2.00D  GRAD.:     5.228 HEAT: -28.37179
 CYCLE:    45 TIME:   0.012 TIME LEFT:  2.00D  GRAD.:     6.011 HEAT: -28.41079
 CYCLE:    46 TIME:   0.008 TIME LEFT:  2.00D  GRAD.:     4.302 HEAT: -28.45382
 CYCLE:    47 TIME:   0.008 TIME LEFT:  2.00D  GRAD.:     5.307 HEAT: -28.48834
 CYCLE:    48 TIME:   0.012 TIME LEFT:  2.00D  GRAD.:     4.032 HEAT: -28.51053
 CYCLE:    49 TIME:   0.012 TIME LEFT:  2.00D  GRAD.:     3.195 HEAT: -28.53312
 CYCLE:    50 TIME:   0.008 TIME LEFT:  2.00D  GRAD.:     4.165 HEAT: -28.55496
 CYCLE:    51 TIME:   0.012 TIME LEFT:  2.00D  GRAD.:     3.134 HEAT: -28.58011
 CYCLE:    52 TIME:   0.008 TIME LEFT:  2.00D  GRAD.:     2.102 HEAT: -28.59735
 CYCLE:    53 TIME:   0.012 TIME LEFT:  2.00D  GRAD.:     2.529 HEAT: -28.61451
 CYCLE:    54 TIME:   0.008 TIME LEFT:  2.00D  GRAD.:     2.917 HEAT: -28.62466
 CYCLE:    55 TIME:   0.008 TIME LEFT:  2.00D  GRAD.:     1.953 HEAT: -28.63364
 CYCLE:    56 TIME:   0.008 TIME LEFT:  2.00D  GRAD.:     1.343 HEAT: -28.64166
 CYCLE:    57 TIME:   0.012 TIME LEFT:  2.00D  GRAD.:     1.098 HEAT: -28.64476
 CYCLE:    58 TIME:   0.008 TIME LEFT:  2.00D  GRAD.:     0.931 HEAT: -28.64884

     GRADIENT =  0.93094 IS LESS THAN CUTOFF =  1.00000



 -------------------------------------------------------------------------------
 AUX LARGE CHARGE=0 SINGLET  PM7
 kat0



     GEOMETRY OPTIMISED USING EIGENVECTOR FOLLOWING (EF).     
     SCF FIELD WAS ACHIEVED                                   


                              PM7 CALCULATION
                                                       MOPAC2016 (Version: 20.225L)
                                                       Fri Feb  5 15:30:20 2021
                                                       No. of days remaining = 189




          FINAL HEAT OF FORMATION =        -28.64884 KCAL/MOL =    -119.86673 KJ/MOL


          TOTAL ENERGY            =      -1326.19509 EV
          ELECTRONIC ENERGY       =      -6783.81132 EV  POINT GROUP:     C1  
          CORE-CORE REPULSION     =       5457.61623 EV
          COSMO AREA              =        184.62 SQUARE ANGSTROMS
          COSMO VOLUME            =        177.72 CUBIC ANGSTROMS

          GRADIENT NORM           =          0.93094 = 0.19003 PER ATOM
          IONIZATION POTENTIAL    =          9.670367 EV
          HOMO LUMO ENERGIES (EV) =         -9.670  3.219
          NO. OF FILLED LEVELS    =         25
          MOLECULAR WEIGHT        =        116.2058

          MOLECULAR DIMENSIONS (Angstroms)

            Atom       Atom       Distance
            H    23    H     5     8.79143
            H    20    H     3     4.61139
            H    16    H     7     2.91288


          SCF CALCULATIONS        =         69
 
          WALL-CLOCK TIME         =          0.723 SECONDS
          COMPUTATION TIME        =          8.444 SECONDS




   ATOM   CHEMICAL          X               Y               Z
  NUMBER   SYMBOL      (ANGSTROMS)     (ANGSTROMS)     (ANGSTROMS)
 
     1       C         -6.92601490  *   0.40472131  *  -0.11968206  *
     2       C         -5.73773389  *   1.30782150  *   0.21115453  *
     3       H         -6.90115503  *  -0.52157191  *   0.46475517  *
     4       H         -6.93757475  *   0.12596355  *  -1.17915753  *
     5       H         -7.87561321  *   0.90497703  *   0.09853798  *
     6       C         -4.41060269  *   0.61069586  *  -0.11627851  *
     7       H         -5.76356056  *   1.58839774  *   1.28083732  *
     8       H         -5.81512727  *   2.25633565  *  -0.35375817  *
     9       C         -3.22176482  *   1.50685842  *   0.24981050  *
    10       H         -4.37615685  *   0.35570077  *  -1.19190162  *
    11       H         -4.34526287  *  -0.35024122  *   0.42657088  *
    12       C         -1.89993703  *   0.82836908  *  -0.12279829  *
    13       H         -3.23876763  *   1.74603970  *   1.32893021  *
    14       H         -3.29776445  *   2.48292087  *  -0.27314983  *
    15       C         -0.70534044  *   1.78125540  *   0.13393423  *
    16       H         -1.92177930  *   0.51711868  *  -1.18283604  *
    17       H         -1.77069774  *  -0.09661484  *   0.46711444  *
    18       N         -0.75148244  *   2.91888091  *  -0.80040090  *
    19       H         -0.83371738  *   2.62952124  *  -1.76092265  *
    20       H          0.07044006  *   3.50103631  *  -0.71040442  *
    21       N          0.59885223  *   1.08683798  *  -0.01473247  *
    22       H         -0.75638743  *   2.20168134  *   1.17656669  *
    23       H          0.88146641  *   0.57841552  *   0.80286031  *
    24       H          0.64907452  *   0.48689220  *  -0.81764776  *

                             CARTESIAN COORDINATES

   1    C       -6.926014902     0.404721307    -0.119682056
   2    C       -5.737733894     1.307821499     0.211154526
   3    H       -6.901155032    -0.521571907     0.464755166
   4    H       -6.937574750     0.125963553    -1.179157532
   5    H       -7.875613206     0.904977034     0.098537977
   6    C       -4.410602692     0.610695857    -0.116278511
   7    H       -5.763560561     1.588397744     1.280837319
   8    H       -5.815127273     2.256335654    -0.353758170
   9    C       -3.221764822     1.506858423     0.249810504
  10    H       -4.376156855     0.355700768    -1.191901623
  11    H       -4.345262873    -0.350241220     0.426570877
  12    C       -1.899937033     0.828369076    -0.122798289
  13    H       -3.238767631     1.746039696     1.328930209
  14    H       -3.297764449     2.482920867    -0.273149831
  15    C       -0.705340437     1.781255399     0.133934230
  16    H       -1.921779295     0.517118685    -1.182836036
  17    H       -1.770697744    -0.096614841     0.467114445
  18    N       -0.751482443     2.918880909    -0.800400903
  19    H       -0.833717376     2.629521242    -1.760922655
  20    H        0.070440058     3.501036313    -0.710404424
  21    N        0.598852227     1.086837982    -0.014732471
  22    H       -0.756387429     2.201681345     1.176566687
  23    H        0.881466411     0.578415519     0.802860315
  24    H        0.649074520     0.486892200    -0.817647760


           Empirical Formula: C6 H16 N2  =    24 atoms



      MOLECULAR POINT GROUP   :   C1  


                  EIGENVALUES  
 -36.60710 -34.07287 -29.10199 -26.97678 -24.01960 -21.30877 -20.23797 -19.89771
 -17.66819 -16.50471 -16.27096 -15.87971 -15.23918 -14.57771 -14.03218 -13.97000
 -13.06056 -12.72641 -12.26425 -11.80351 -11.67168 -11.63226 -11.12764  -9.78341
  -9.67037   3.21920   3.61049   3.63999   4.07267   4.30404   4.72349   4.87472
   5.20854   5.42823   5.56149   5.82703   5.88290   6.09941   6.11215   6.26986
   6.29494   6.39574   6.67383   6.72143   6.82811   6.94108   7.05031   7.21255


              NET ATOMIC CHARGES AND DIPOLE CONTRIBUTIONS

  ATOM NO.   TYPE          CHARGE      No. of ELECS.   s-Pop       p-Pop       
    1          C          -0.442443        4.4424     1.05218     3.39027
    2          C          -0.247985        4.2480     1.05519     3.19279
    3          H           0.141576        0.8584     0.85842
    4          H           0.142605        0.8574     0.85740
    5          H           0.140336        0.8597     0.85966
    6          C          -0.272503        4.2725     1.06006     3.21244
    7          H           0.133168        0.8668     0.86683
    8          H           0.136108        0.8639     0.86389
    9          C          -0.263279        4.2633     1.05855     3.20473
   10          H           0.136119        0.8639     0.86388
   11          H           0.134226        0.8658     0.86577
   12          C          -0.338526        4.3385     1.07222     3.26631
   13          H           0.136010        0.8640     0.86399
   14          H           0.161314        0.8387     0.83869
   15          C           0.229014        3.7710     1.07684     2.69415
   16          H           0.142815        0.8572     0.85719
   17          H           0.139594        0.8604     0.86041
   18          N          -0.649436        5.6494     1.64339     4.00605
   19          H           0.247495        0.7525     0.75250
   20          H           0.263817        0.7362     0.73618
   21          N          -0.729082        5.7291     1.63871     4.09037
   22          H           0.144053        0.8559     0.85595
   23          H           0.260733        0.7393     0.73927
   24          H           0.254270        0.7457     0.74573
 DIPOLE           X         Y         Z       TOTAL
 POINT-CHG.    -0.649    -0.823     0.379     1.114
 HYBRID         0.537    -1.321    -0.537     1.524
 SUM           -0.112    -2.144    -0.159     2.153


          ATOMIC ORBITAL ELECTRON POPULATIONS

     Atom    s        px        py        pz   
    1  C   1.05218   1.09216   1.12992   1.16819
    2  C   1.05519   0.97859   1.06994   1.14427
    3  H   0.85842
    4  H   0.85740
    5  H   0.85966
    6  C   1.06006   0.98767   1.07783   1.14694
    7  H   0.86683
    8  H   0.86389
    9  C   1.05855   0.96614   1.08999   1.14859
   10  H   0.86388
   11  H   0.86577
   12  C   1.07222   1.02570   1.08197   1.15864
   13  H   0.86399
   14  H   0.83869
   15  C   1.07684   0.81926   0.86598   1.00891
   16  H   0.85719
   17  H   0.86041
   18  N   1.64339   1.52235   1.28416   1.19954
   19  H   0.75250
   20  H   0.73618
   21  N   1.63871   1.39441   1.48371   1.21225
   22  H   0.85595
   23  H   0.73927
   24  H   0.74573

 **********************
 *                    *
 * JOB ENDED NORMALLY *
 *                    *
 **********************



 TOTAL JOB TIME:             0.73 SECONDS

 == MOPAC DONE ==
