 *******************************************************************************
 ** Site#: 30659        For non-commercial use only    Version 20.225L 64BITS **
 *******************************************************************************
 ** Cite this program as: MOPAC2016, Version: 20.225L, James J. P. Stewart,   **
 ** Stewart Computational Chemistry, web: HTTP://OpenMOPAC.net. Days left: 189**
 *******************************************************************************
 **                                                                           **
 **                                MOPAC2016                                  **
 **                                                                           **
 *******************************************************************************

                              PM7 CALCULATION RESULTS

 *******************************************************************************
 *  CALCULATION DONE:                                Fri Feb  5 15:34:48 2021  *
 *  PM7        - The PM7 Hamiltonian to be used
 *  DOUBLET    - SPIN STATE DEFINED AS A DOUBLET
 *
 *
 *
 *                 CHARGE ON SYSTEM = +1
 *
 *
 *
 *  T=         - A TIME OF 172800.0 SECONDS REQUESTED
 *  DUMP=N     - RESTART FILE WRITTEN EVERY 7200.0 SECONDS REQUESTED
 *  AUX        - OUTPUT AUXILIARY INFORMATION
 *  LARGE      - EXPANDED OUTPUT TO BE PRINTED
 *******************************************************************************
 AUX LARGE CHARGE=1 DOUBLET  PM7
 kat0

   ATOM   CHEMICAL          X               Y               Z
  NUMBER   SYMBOL      (ANGSTROMS)     (ANGSTROMS)     (ANGSTROMS)
 
     1       C         -6.94695000  *   0.40249000  *  -0.06427000  *
     2       C         -5.75298000  *   1.32574000  *   0.15722000  *
     3       H         -6.89538000  *  -0.46316000  *   0.62942000  *
     4       H         -6.96238000  *   0.03178000  *  -1.11073000  *
     5       H         -7.88746000  *   0.95829000  *   0.13104000  *
     6       C         -4.43222000  *   0.60041000  *  -0.12519000  *
     7       H         -5.76971000  *   1.68501000  *   1.20903000  *
     8       H         -5.84327000  *   2.20281000  *  -0.52067000  *
     9       C         -3.23365000  *   1.51833000  *   0.14320000  *
    10       H         -4.41991000  *   0.27188000  *  -1.18794000  *
    11       H         -4.35227000  *  -0.29710000  *   0.52754000  *
    12       C         -1.91215000  *   0.81584000  *  -0.20206000  *
    13       H         -3.23305000  *   1.80637000  *   1.21759000  *
    14       H         -3.32992000  *   2.43824000  *  -0.47395000  *
    15       C         -0.68807000  *   1.68746000  *   0.13420000  *
    16       H         -1.90437000  *   0.56375000  *  -1.28555000  *
    17       H         -1.84096000  *  -0.12984000  *   0.37860000  *
    18       N         -0.75068000  *   2.96134000  *  -0.58273000  *
    19       H         -0.68897000  *   2.79493000  *  -1.61348000  *
    20       H          0.05232000  *   3.56569000  *  -0.29306000  *
    21       N          0.54146000  *   0.97698000  *  -0.22205000  *
    22       H         -0.68863000  *   1.89218000  *   1.22867000  *
    23       H          1.36678000  *   1.56017000  *   0.04686000  *
    24       H          0.59865000  *   0.08562000  *   0.32082000  *
 


          CARTESIAN COORDINATES 

    NO.       ATOM           X           Y           Z

     1         C         -6.9470      0.4025     -0.0643
     2         C         -5.7530      1.3257      0.1572
     3         H         -6.8954     -0.4632      0.6294
     4         H         -6.9624      0.0318     -1.1107
     5         H         -7.8875      0.9583      0.1310
     6         C         -4.4322      0.6004     -0.1252
     7         H         -5.7697      1.6850      1.2090
     8         H         -5.8433      2.2028     -0.5207
     9         C         -3.2336      1.5183      0.1432
    10         H         -4.4199      0.2719     -1.1879
    11         H         -4.3523     -0.2971      0.5275
    12         C         -1.9122      0.8158     -0.2021
    13         H         -3.2330      1.8064      1.2176
    14         H         -3.3299      2.4382     -0.4740
    15         C         -0.6881      1.6875      0.1342
    16         H         -1.9044      0.5638     -1.2855
    17         H         -1.8410     -0.1298      0.3786
    18         N         -0.7507      2.9613     -0.5827
    19         H         -0.6890      2.7949     -1.6135
    20         H          0.0523      3.5657     -0.2931
    21         N          0.5415      0.9770     -0.2220
    22         H         -0.6886      1.8922      1.2287
    23         H          1.3668      1.5602      0.0469
    24         H          0.5987      0.0856      0.3208

 General Reference for PM7:
 "Optimization of Parameters for Semiempirical Methods VI: More Modifications to the 
 NDDO Approximations and Re-optimization of Parameters", J. J. P. Stewart, J. Mol. Mod., 1:32, 19 (2013)
 https://link.springer.com/article/10.1007/s00894-012-1667-x

           Empirical Formula: C6 H16 N2  =    24 atoms



      MOLECULAR POINT GROUP   :   C1  


 DOUBLET STATE CALCULATION


          UHF CALCULATION, NO. OF ALPHA ELECTRONS =   25
                           NO. OF BETA  ELECTRONS =   24

          Geometry optimization using EF

          DIAGONAL MATRIX USED AS START HESSIAN

 CYCLE:     1 TIME:   0.066 TIME LEFT:  2.00D  GRAD.:   161.614 HEAT:  192.8006
 CYCLE:     2 TIME:   0.016 TIME LEFT:  2.00D  GRAD.:   118.763 HEAT:  179.5812
 CYCLE:     3 TIME:   0.016 TIME LEFT:  2.00D  GRAD.:   144.666 HEAT:  175.6925
 CYCLE:     4 TIME:   0.027 TIME LEFT:  2.00D  GRAD.:    78.341 HEAT:  170.2561
 CYCLE:     5 TIME:   0.027 TIME LEFT:  2.00D  GRAD.:    65.070 HEAT:  168.1566
 CYCLE:     6 TIME:   0.016 TIME LEFT:  2.00D  GRAD.:    62.664 HEAT:  167.7880
 CYCLE:     7 TIME:   0.012 TIME LEFT:  2.00D  GRAD.:    63.631 HEAT:  166.8774
 CYCLE:     8 TIME:   0.016 TIME LEFT:  2.00D  GRAD.:    61.035 HEAT:  166.5363
 CYCLE:     9 TIME:   0.016 TIME LEFT:  2.00D  GRAD.:    46.960 HEAT:  165.7327
 CYCLE:    10 TIME:   0.027 TIME LEFT:  2.00D  GRAD.:    23.572 HEAT:  165.0082
 CYCLE:    11 TIME:   0.016 TIME LEFT:  2.00D  GRAD.:    20.262 HEAT:  164.6112
 CYCLE:    12 TIME:   0.020 TIME LEFT:  2.00D  GRAD.:    27.458 HEAT:  164.3534
 CYCLE:    13 TIME:   0.012 TIME LEFT:  2.00D  GRAD.:    30.676 HEAT:  164.1742
 CYCLE:    14 TIME:   0.012 TIME LEFT:  2.00D  GRAD.:    17.592 HEAT:  163.7074
 CYCLE:    15 TIME:   0.012 TIME LEFT:  2.00D  GRAD.:    32.295 HEAT:  163.6480
 CYCLE:    16 TIME:   0.012 TIME LEFT:  2.00D  GRAD.:    25.523 HEAT:  163.0970
 CYCLE:    17 TIME:   0.012 TIME LEFT:  2.00D  GRAD.:    40.095 HEAT:  162.6622
 CYCLE:    18 TIME:   0.012 TIME LEFT:  2.00D  GRAD.:    43.149 HEAT:  161.8342
 CYCLE:    19 TIME:   0.016 TIME LEFT:  2.00D  GRAD.:    39.377 HEAT:  161.1082
 CYCLE:    20 TIME:   0.023 TIME LEFT:  2.00D  GRAD.:    20.577 HEAT:  160.6028
 CYCLE:    21 TIME:   0.027 TIME LEFT:  2.00D  GRAD.:    14.839 HEAT:  160.4458
 CYCLE:    22 TIME:   0.012 TIME LEFT:  2.00D  GRAD.:    17.198 HEAT:  160.4113
 CYCLE:    23 TIME:   0.020 TIME LEFT:  2.00D  GRAD.:    12.686 HEAT:  160.3499
 CYCLE:    24 TIME:   0.012 TIME LEFT:  2.00D  GRAD.:    11.058 HEAT:  160.2822
 CYCLE:    25 TIME:   0.012 TIME LEFT:  2.00D  GRAD.:     5.365 HEAT:  160.2201
 CYCLE:    26 TIME:   0.008 TIME LEFT:  2.00D  GRAD.:     6.696 HEAT:  160.1854
 CYCLE:    27 TIME:   0.012 TIME LEFT:  2.00D  GRAD.:     5.740 HEAT:  160.1354
 CYCLE:    28 TIME:   0.008 TIME LEFT:  2.00D  GRAD.:     6.689 HEAT:  160.0878
 CYCLE:    29 TIME:   0.008 TIME LEFT:  2.00D  GRAD.:     5.157 HEAT:  160.0570
 CYCLE:    30 TIME:   0.012 TIME LEFT:  2.00D  GRAD.:     5.624 HEAT:  160.0319
 CYCLE:    31 TIME:   0.008 TIME LEFT:  2.00D  GRAD.:     3.563 HEAT:  160.0062
 CYCLE:    32 TIME:   0.012 TIME LEFT:  2.00D  GRAD.:     3.414 HEAT:  159.9895
 CYCLE:    33 TIME:   0.012 TIME LEFT:  2.00D  GRAD.:     2.735 HEAT:  159.9770
 CYCLE:    34 TIME:   0.016 TIME LEFT:  2.00D  GRAD.:     3.074 HEAT:  159.9618
 CYCLE:    35 TIME:   0.012 TIME LEFT:  2.00D  GRAD.:     2.267 HEAT:  159.9521
 CYCLE:    36 TIME:   0.020 TIME LEFT:  2.00D  GRAD.:     1.782 HEAT:  159.9455
 CYCLE:    37 TIME:   0.027 TIME LEFT:  2.00D  GRAD.:     1.929 HEAT:  159.9356
 CYCLE:    38 TIME:   0.016 TIME LEFT:  2.00D  GRAD.:     1.854 HEAT:  159.9316
 CYCLE:    39 TIME:   0.020 TIME LEFT:  2.00D  GRAD.:     1.242 HEAT:  159.9276
 CYCLE:    40 TIME:   0.016 TIME LEFT:  2.00D  GRAD.:     1.306 HEAT:  159.9234
 CYCLE:    41 TIME:   0.012 TIME LEFT:  2.00D  GRAD.:     1.431 HEAT:  159.9204
 CYCLE:    42 TIME:   0.016 TIME LEFT:  2.00D  GRAD.:     1.407 HEAT:  159.9164
 CYCLE:    43 TIME:   0.008 TIME LEFT:  2.00D  GRAD.:     1.190 HEAT:  159.9137
 CYCLE:    44 TIME:   0.012 TIME LEFT:  2.00D  GRAD.:     1.399 HEAT:  159.9097
 CYCLE:    45 TIME:   0.012 TIME LEFT:  2.00D  GRAD.:     1.444 HEAT:  159.9061
 CYCLE:    46 TIME:   0.016 TIME LEFT:  2.00D  GRAD.:     1.841 HEAT:  159.9023
 CYCLE:    47 TIME:   0.008 TIME LEFT:  2.00D  GRAD.:     1.276 HEAT:  159.8986
 CYCLE:    48 TIME:   0.012 TIME LEFT:  2.00D  GRAD.:     0.920 HEAT:  159.8943

     GRADIENT =  0.91990 IS LESS THAN CUTOFF =  1.00000



 -------------------------------------------------------------------------------
 AUX LARGE CHARGE=1 DOUBLET  PM7
 kat0



     GEOMETRY OPTIMISED USING EIGENVECTOR FOLLOWING (EF).     
     SCF FIELD WAS ACHIEVED                                   


                              PM7 CALCULATION
                                                       MOPAC2016 (Version: 20.225L)
                                                       Fri Feb  5 15:34:48 2021
                                                       No. of days remaining = 189




          FINAL HEAT OF FORMATION =        159.89428 KCAL/MOL =     668.99768 KJ/MOL


          TOTAL ENERGY            =      -1318.01944 EV
          ELECTRONIC ENERGY       =      -6770.79801 EV  POINT GROUP:     C1  
          CORE-CORE REPULSION     =       5452.77857 EV
          COSMO AREA              =        184.63 SQUARE ANGSTROMS
          COSMO VOLUME            =        177.65 CUBIC ANGSTROMS

          GRADIENT NORM           =          0.91990 = 0.18777 PER ATOM
          IONIZATION POTENTIAL    =         14.063394 EV
          ALPHA SOMO LUMO (EV)    =        -14.064 -3.985
          BETA  SOMO LUMO (EV)    =        -14.063 -7.154
          NO. OF ALPHA ELECTRONS  =         25
          NO. OF BETA  ELECTRONS  =         24
          MOLECULAR WEIGHT        =        116.2058

          MOLECULAR DIMENSIONS (Angstroms)

            Atom       Atom       Distance
            H    23    H     5     9.17940
            H    20    H     3     4.02903
            H     4    H    22     2.95587


          SCF CALCULATIONS        =         54
 
          WALL-CLOCK TIME         =          0.797 SECONDS
          COMPUTATION TIME        =          9.160 SECONDS




   ATOM   CHEMICAL          X               Y               Z
  NUMBER   SYMBOL      (ANGSTROMS)     (ANGSTROMS)     (ANGSTROMS)
 
     1       C         -6.91910070  *   0.37209468  *  -0.05232532  *
     2       C         -5.74474216  *   1.31876532  *   0.18798195  *
     3       H         -6.85889723  *  -0.51995948  *   0.58278102  *
     4       H         -6.96183850  *   0.03396326  *  -1.09466782  *
     5       H         -7.87631092  *   0.86353441  *   0.16938110  *
     6       C         -4.42076579  *   0.62412901  *  -0.16131312  *
     7       H         -5.73917857  *   1.65144906  *   1.24386303  *
     8       H         -5.86829091  *   2.23626465  *  -0.41926363  *
     9       C         -3.22994991  *   1.54561925  *   0.13988757  *
    10       H         -4.42794832  *   0.33107317  *  -1.22874623  *
    11       H         -4.33518531  *  -0.31850097  *   0.41270351  *
    12       C         -1.92078643  *   0.85324526  *  -0.25819714  *
    13       H         -3.23255657  *   1.80386643  *   1.21749656  *
    14       H         -3.35592124  *   2.50101956  *  -0.40646262  *
    15       C         -0.71859761  *   1.74087601  *   0.15102353  *
    16       H         -1.91564277  *   0.65730341  *  -1.35157404  *
    17       H         -1.87297874  *  -0.14251191  *   0.22822620  *
    18       N         -0.46583737  *   2.87607840  *  -0.69237160  *
    19       H         -0.98944191  *   2.92222358  *  -1.55514692  *
    20       H         -0.41780341  *   3.77517415  *  -0.23478969  *
    21       N          0.50808218  *   0.92591807  *   0.03558478  *
    22       H         -0.80593986  *   2.01889453  *   1.25697115  *
    23       H          1.26587303  *   1.25086178  *  -0.55992358  *
    24       H          0.61441437  *   0.04955627  *   0.51606629  *

                             CARTESIAN COORDINATES

   1    C       -6.919100701     0.372094681    -0.052325321
   2    C       -5.744742159     1.318765321     0.187981951
   3    H       -6.858897231    -0.519959478     0.582781024
   4    H       -6.961838496     0.033963259    -1.094667823
   5    H       -7.876310923     0.863534406     0.169381105
   6    C       -4.420765786     0.624129014    -0.161313123
   7    H       -5.739178569     1.651449062     1.243863035
   8    H       -5.868290909     2.236264647    -0.419263628
   9    C       -3.229949914     1.545619254     0.139887569
  10    H       -4.427948325     0.331073165    -1.228746231
  11    H       -4.335185313    -0.318500974     0.412703513
  12    C       -1.920786433     0.853245258    -0.258197145
  13    H       -3.232556573     1.803866428     1.217496564
  14    H       -3.355921245     2.501019556    -0.406462619
  15    C       -0.718597610     1.740876009     0.151023535
  16    H       -1.915642773     0.657303406    -1.351574036
  17    H       -1.872978743    -0.142511910     0.228226198
  18    N       -0.465837369     2.876078399    -0.692371596
  19    H       -0.989441913     2.922223583    -1.555146925
  20    H       -0.417803405     3.775174149    -0.234789688
  21    N        0.508082176     0.925918070     0.035584783
  22    H       -0.805939855     2.018894528     1.256971147
  23    H        1.265873027     1.250861784    -0.559923584
  24    H        0.614414374     0.049556266     0.516066290


           Empirical Formula: C6 H16 N2  =    24 atoms



      MOLECULAR POINT GROUP   :   C1  


          ALPHA EIGENVALUES  
 -43.38747 -40.28723 -33.01353 -30.79130 -28.41920 -26.25483 -24.80811 -24.36957
 -23.09954 -22.44726 -21.84705 -20.69643 -20.03184 -19.82373 -18.33152 -17.86671
 -17.70429 -16.94076 -16.54146 -16.13500 -15.19403 -15.09137 -14.92327 -14.47289
 -14.06357  -3.98467  -2.22262  -1.84649  -1.09820  -0.71599  -0.27334   0.05722
   0.67130   0.73956   1.29167   1.46485   1.64341   1.80610   2.06360   2.19880
   2.61214   2.66877   3.14941   3.48633   3.60117   3.68547   3.97696   4.72515


           BETA EIGENVALUES 
 -42.11114 -39.45271 -32.96329 -30.70399 -28.25669 -26.09285 -24.33547 -24.28582
 -23.04203 -22.20914 -21.59755 -20.61458 -19.86060 -18.70502 -18.14825 -17.76495
 -17.18669 -16.55383 -16.12786 -15.19750 -15.09822 -14.91514 -14.47287 -14.06339
  -7.15436  -3.33866  -2.24906  -1.76003  -0.72062  -0.50618  -0.24374   0.43235
   0.67997   0.74572   1.28346   1.46641   1.64518   1.80722   2.06388   2.18416
   2.61232   2.66953   3.14952   3.48663   3.60131   3.68550   3.97703   4.72517


              NET ATOMIC CHARGES AND DIPOLE CONTRIBUTIONS

  ATOM NO.   TYPE          CHARGE      No. of ELECS.   s-Pop       p-Pop       
    1          C          -0.434196        4.4342     1.05182     3.38238
    2          C          -0.249401        4.2494     1.05585     3.19355
    3          H           0.148591        0.8514     0.85141
    4          H           0.149836        0.8502     0.85016
    5          H           0.160683        0.8393     0.83932
    6          C          -0.273941        4.2739     1.06200     3.21194
    7          H           0.140342        0.8597     0.85966
    8          H           0.141203        0.8588     0.85880
    9          C          -0.275953        4.2760     1.06267     3.21329
   10          H           0.147516        0.8525     0.85248
   11          H           0.146829        0.8532     0.85317
   12          C          -0.317338        4.3173     1.07858     3.23876
   13          H           0.151621        0.8484     0.84838
   14          H           0.151609        0.8484     0.84839
   15          C           0.164404        3.8356     1.09265     2.74295
   16          H           0.179004        0.8210     0.82100
   17          H           0.171668        0.8283     0.82833
   18          N          -0.658863        5.6589     1.59452     4.06434
   19          H           0.310102        0.6899     0.68990
   20          H           0.311478        0.6885     0.68852
   21          N          -0.114748        5.1147     1.56836     3.54639
   22          H           0.208858        0.7911     0.79114
   23          H           0.328799        0.6712     0.67120
   24          H           0.311898        0.6881     0.68810
 DIPOLE           X         Y         Z       TOTAL
 POINT-CHG.    10.529    -0.348     0.855    10.569
 HYBRID         0.459     0.126    -0.111     0.489
 SUM           10.988    -0.222     0.744    11.016


          ATOMIC ORBITAL ELECTRON POPULATIONS

     Atom    s        px        py        pz   
    1  C   1.05182   1.08463   1.12025   1.17750
    2  C   1.05585   0.96856   1.07233   1.15267
    3  H   0.85141
    4  H   0.85016
    5  H   0.83932
    6  C   1.06200   0.98215   1.06880   1.16100
    7  H   0.85966
    8  H   0.85880
    9  C   1.06267   0.96293   1.09266   1.15770
   10  H   0.85248
   11  H   0.85317
   12  C   1.07858   0.97345   1.08395   1.18136
   13  H   0.84838
   14  H   0.84839
   15  C   1.09265   0.82256   0.88141   1.03897
   16  H   0.82100
   17  H   0.82833
   18  N   1.59452   1.67299   1.16816   1.22319
   19  H   0.68990
   20  H   0.68852
   21  N   1.56836   1.20702   1.18915   1.15022
   22  H   0.79114
   23  H   0.67120
   24  H   0.68810


                    (SZ)    =    0.500000
                    (S**2)  =    0.762524


          ATOMIC ORBITAL SPIN POPULATIONS

    Atom   Total    s     px     py     pz   
         Atomic
    1  C  0.0001  0.000  0.000  0.000  0.000
    2  C  0.0004  0.000  0.000  0.000  0.000
    3  H -0.0000 -0.000
    4  H -0.0000 -0.000
    5  H  0.0000  0.000
    6  C  0.0018  0.000  0.001  0.000  0.000
    7  H -0.0000 -0.000
    8  H -0.0000 -0.000
    9  C -0.0008 -0.000  0.000 -0.001 -0.000
   10  H -0.0000 -0.000
   11  H -0.0001 -0.000
   12  C  0.0548  0.006  0.032  0.010  0.006
   13  H  0.0001  0.000
   14  H  0.0000  0.000
   15  C -0.0469 -0.006 -0.035 -0.007  0.002
   16  H -0.0009 -0.001
   17  H -0.0016 -0.002
   18  N -0.0198 -0.003 -0.015 -0.002 -0.001
   19  H  0.0001  0.000
   20  H -0.0010 -0.001
   21  N  1.0474  0.047  0.188  0.248  0.566
   22  H  0.0454  0.045
   23  H -0.0396 -0.040
   24  H -0.0395 -0.039

 **********************
 *                    *
 * JOB ENDED NORMALLY *
 *                    *
 **********************



 TOTAL JOB TIME:             0.81 SECONDS

 == MOPAC DONE ==
