 *******************************************************************************
 ** Site#: 30659        For non-commercial use only    Version 20.225L 64BITS **
 *******************************************************************************
 ** Cite this program as: MOPAC2016, Version: 20.225L, James J. P. Stewart,   **
 ** Stewart Computational Chemistry, web: HTTP://OpenMOPAC.net. Days left: 189**
 *******************************************************************************
 **                                                                           **
 **                                MOPAC2016                                  **
 **                                                                           **
 *******************************************************************************

                              PM7 CALCULATION RESULTS

 *******************************************************************************
 *  CALCULATION DONE:                                Fri Feb  5 15:13:01 2021  *
 *  PM7        - The PM7 Hamiltonian to be used
 *  SINGLET    - SPIN STATE DEFINED AS A SINGLET
 *
 *
 *
 *                 CHARGE ON SYSTEM = 0
 *
 *
 *
 *  T=         - A TIME OF 172800.0 SECONDS REQUESTED
 *  DUMP=N     - RESTART FILE WRITTEN EVERY 7200.0 SECONDS REQUESTED
 *  AUX        - OUTPUT AUXILIARY INFORMATION
 *  LARGE      - EXPANDED OUTPUT TO BE PRINTED
 *******************************************************************************
 AUX LARGE CHARGE=0 SINGLET  PM7
 SOL

   ATOM   CHEMICAL          X               Y               Z
  NUMBER   SYMBOL      (ANGSTROMS)     (ANGSTROMS)     (ANGSTROMS)
 
     1       C          1.15596000  *   2.22188000  *   0.43265000  *
     2       O          1.87029000  *   3.01444000  *   1.02905000  *
     3       O         -0.18644000  *   2.35324000  *   0.48893000  *
     4       H         -0.60379000  *   3.06549000  *   0.99405000  *
     5       C          1.76172000  *   1.12237000  *  -0.34821000  *
     6       O          2.97639000  *   1.00839000  *  -0.39563000  *
     7       O          0.99140000  *   0.23545000  *  -1.01474000  *
     8       H          0.02537000  *   0.28363000  *  -1.00790000  *
     9       C         -2.22668000  *  -4.75516000  *  -4.22357000  *
    10       N         -3.33731000  *  -5.68280000  *  -4.45174000  *
    11       N         -2.41356000  *  -4.06154000  *  -2.94832000  *
    12       C          0.31174000  *  -4.54554000  *  -4.07503000  *
    13       C         -0.87742000  *  -5.50195000  *  -4.24664000  *
    14       H         -2.22852000  *  -3.99930000  *  -5.04061000  *
    15       H         -0.86099000  *  -6.26449000  *  -3.43680000  *
    16       H         -0.77584000  *  -6.02515000  *  -5.22301000  *
    17       C          1.64066000  *  -5.30845000  *  -4.12273000  *
    18       H          0.23014000  *  -4.02044000  *  -3.09825000  *
    19       H          0.29354000  *  -3.78919000  *  -4.89053000  *
    20       C          2.82581000  *  -4.36199000  *  -3.95475000  *
    21       H          1.73622000  *  -5.83276000  *  -5.09861000  *
    22       H          1.66697000  *  -6.06425000  *  -3.30758000  *
    23       H          2.83650000  *  -3.60807000  *  -4.77057000  *
    24       H          3.77268000  *  -4.94073000  *  -3.99307000  *
    25       H          2.76745000  *  -3.83994000  *  -2.97588000  *
    26       H         -2.44949000  *  -4.75521000  *  -2.16588000  *
    27       H         -3.32057000  *  -3.54120000  *  -2.97052000  *
    28       H         -3.34018000  *  -6.42841000  *  -3.71774000  *
    29       H         -3.22963000  *  -6.13615000  *  -5.38825000  *
 


          CARTESIAN COORDINATES 

    NO.       ATOM           X           Y           Z

     1         C          1.1560      2.2219      0.4327
     2         O          1.8703      3.0144      1.0291
     3         O         -0.1864      2.3532      0.4889
     4         H         -0.6038      3.0655      0.9940
     5         C          1.7617      1.1224     -0.3482
     6         O          2.9764      1.0084     -0.3956
     7         O          0.9914      0.2355     -1.0147
     8         H          0.0254      0.2836     -1.0079
     9         C         -2.2267     -4.7552     -4.2236
    10         N         -3.3373     -5.6828     -4.4517
    11         N         -2.4136     -4.0615     -2.9483
    12         C          0.3117     -4.5455     -4.0750
    13         C         -0.8774     -5.5019     -4.2466
    14         H         -2.2285     -3.9993     -5.0406
    15         H         -0.8610     -6.2645     -3.4368
    16         H         -0.7758     -6.0252     -5.2230
    17         C          1.6407     -5.3084     -4.1227
    18         H          0.2301     -4.0204     -3.0983
    19         H          0.2935     -3.7892     -4.8905
    20         C          2.8258     -4.3620     -3.9548
    21         H          1.7362     -5.8328     -5.0986
    22         H          1.6670     -6.0643     -3.3076
    23         H          2.8365     -3.6081     -4.7706
    24         H          3.7727     -4.9407     -3.9931
    25         H          2.7675     -3.8399     -2.9759
    26         H         -2.4495     -4.7552     -2.1659
    27         H         -3.3206     -3.5412     -2.9705
    28         H         -3.3402     -6.4284     -3.7177
    29         H         -3.2296     -6.1361     -5.3883

 General Reference for PM7:
 "Optimization of Parameters for Semiempirical Methods VI: More Modifications to the 
 NDDO Approximations and Re-optimization of Parameters", J. J. P. Stewart, J. Mol. Mod., 1:32, 19 (2013)
 https://link.springer.com/article/10.1007/s00894-012-1667-x

           Empirical Formula: C7 H16 N2 O4  =    29 atoms



      MOLECULAR POINT GROUP   :   C1  


 SINGLET STATE CALCULATION


      RHF CALCULATION, NO. OF DOUBLY OCCUPIED LEVELS = 39


          Geometry optimization using EF

          DIAGONAL MATRIX USED AS START HESSIAN

 CYCLE:     1 TIME:   0.035 TIME LEFT:  2.00D  GRAD.:   142.997 HEAT: -175.5770
 CYCLE:     2 TIME:   0.035 TIME LEFT:  2.00D  GRAD.:   175.917 HEAT: -177.6888
 CYCLE:     3 TIME:   0.016 TIME LEFT:  2.00D  GRAD.:   124.373 HEAT: -179.6724
 CYCLE:     4 TIME:   0.016 TIME LEFT:  2.00D  GRAD.:   125.471 HEAT: -180.2014
 CYCLE:     5 TIME:   0.020 TIME LEFT:  2.00D  GRAD.:    80.458 HEAT: -181.6547
 CYCLE:     6 TIME:   0.035 TIME LEFT:  2.00D  GRAD.:    47.443 HEAT: -183.5529
 CYCLE:     7 TIME:   0.031 TIME LEFT:  2.00D  GRAD.:    42.034 HEAT: -183.8377
 CYCLE:     8 TIME:   0.016 TIME LEFT:  2.00D  GRAD.:    22.940 HEAT: -184.3243
 CYCLE:     9 TIME:   0.016 TIME LEFT:  2.00D  GRAD.:    44.326 HEAT: -184.3953
 CYCLE:    10 TIME:   0.016 TIME LEFT:  2.00D  GRAD.:    34.369 HEAT: -185.0584
 CYCLE:    11 TIME:   0.047 TIME LEFT:  2.00D  GRAD.:    15.305 HEAT: -185.3312
 CYCLE:    12 TIME:   0.016 TIME LEFT:  2.00D  GRAD.:    21.511 HEAT: -185.4656
 CYCLE:    13 TIME:   0.016 TIME LEFT:  2.00D  GRAD.:    12.061 HEAT: -185.7501
 CYCLE:    14 TIME:   0.016 TIME LEFT:  2.00D  GRAD.:    28.279 HEAT: -185.7984
 CYCLE:    15 TIME:   0.035 TIME LEFT:  2.00D  GRAD.:    21.485 HEAT: -185.9120
 CYCLE:    16 TIME:   0.031 TIME LEFT:  2.00D  GRAD.:    15.556 HEAT: -186.0472
 CYCLE:    17 TIME:   0.016 TIME LEFT:  2.00D  GRAD.:    12.139 HEAT: -186.0879
 CYCLE:    18 TIME:   0.031 TIME LEFT:  2.00D  GRAD.:    11.176 HEAT: -186.1331
 CYCLE:    19 TIME:   0.020 TIME LEFT:  2.00D  GRAD.:    11.203 HEAT: -186.1518
 CYCLE:    20 TIME:   0.016 TIME LEFT:  2.00D  GRAD.:    10.255 HEAT: -186.1936
 CYCLE:    21 TIME:   0.012 TIME LEFT:  2.00D  GRAD.:    11.586 HEAT: -186.2037
 CYCLE:    22 TIME:   0.012 TIME LEFT:  2.00D  GRAD.:    11.082 HEAT: -186.2249
 CYCLE:    23 TIME:   0.016 TIME LEFT:  2.00D  GRAD.:    12.521 HEAT: -186.2252
 CYCLE:    24 TIME:   0.008 TIME LEFT:  2.00D  GRAD.:     7.219 HEAT: -186.2711
 CYCLE:    25 TIME:   0.012 TIME LEFT:  2.00D  GRAD.:     7.195 HEAT: -186.2784
 CYCLE:    26 TIME:   0.012 TIME LEFT:  2.00D  GRAD.:     4.714 HEAT: -186.3009
 CYCLE:    27 TIME:   0.012 TIME LEFT:  2.00D  GRAD.:     4.432 HEAT: -186.3101
 CYCLE:    28 TIME:   0.016 TIME LEFT:  2.00D  GRAD.:     2.768 HEAT: -186.3272
 CYCLE:    29 TIME:   0.012 TIME LEFT:  2.00D  GRAD.:     3.411 HEAT: -186.3564
 CYCLE:    30 TIME:   0.012 TIME LEFT:  2.00D  GRAD.:     6.368 HEAT: -186.3928
 CYCLE:    31 TIME:   0.016 TIME LEFT:  2.00D  GRAD.:     6.110 HEAT: -186.4364
 CYCLE:    32 TIME:   0.012 TIME LEFT:  2.00D  GRAD.:     4.415 HEAT: -186.4708
 CYCLE:    33 TIME:   0.016 TIME LEFT:  2.00D  GRAD.:     4.865 HEAT: -186.4974
 CYCLE:    34 TIME:   0.008 TIME LEFT:  2.00D  GRAD.:     4.521 HEAT: -186.5108
 CYCLE:    35 TIME:   0.012 TIME LEFT:  2.00D  GRAD.:     2.692 HEAT: -186.5250
 CYCLE:    36 TIME:   0.012 TIME LEFT:  2.00D  GRAD.:     2.619 HEAT: -186.5374
 CYCLE:    37 TIME:   0.012 TIME LEFT:  2.00D  GRAD.:     4.373 HEAT: -186.5498
 CYCLE:    38 TIME:   0.016 TIME LEFT:  2.00D  GRAD.:     2.866 HEAT: -186.5608
 CYCLE:    39 TIME:   0.008 TIME LEFT:  2.00D  GRAD.:     1.930 HEAT: -186.5679
 CYCLE:    40 TIME:   0.016 TIME LEFT:  2.00D  GRAD.:     2.786 HEAT: -186.5746
 CYCLE:    41 TIME:   0.012 TIME LEFT:  2.00D  GRAD.:     3.579 HEAT: -186.5809
 CYCLE:    42 TIME:   0.012 TIME LEFT:  2.00D  GRAD.:     2.533 HEAT: -186.5912
 CYCLE:    43 TIME:   0.012 TIME LEFT:  2.00D  GRAD.:     2.110 HEAT: -186.6024
 CYCLE:    44 TIME:   0.012 TIME LEFT:  2.00D  GRAD.:     2.072 HEAT: -186.6075
 CYCLE:    45 TIME:   0.012 TIME LEFT:  2.00D  GRAD.:     2.082 HEAT: -186.6161
 CYCLE:    46 TIME:   0.012 TIME LEFT:  2.00D  GRAD.:     1.533 HEAT: -186.6194
 CYCLE:    47 TIME:   0.012 TIME LEFT:  2.00D  GRAD.:     1.225 HEAT: -186.6224
 CYCLE:    48 TIME:   0.012 TIME LEFT:  2.00D  GRAD.:     1.509 HEAT: -186.6265
 CYCLE:    49 TIME:   0.012 TIME LEFT:  2.00D  GRAD.:     1.819 HEAT: -186.6312
 CYCLE:    50 TIME:   0.023 TIME LEFT:  2.00D  GRAD.:     1.931 HEAT: -186.6365
 CYCLE:    51 TIME:   0.016 TIME LEFT:  2.00D  GRAD.:     1.645 HEAT: -186.6412
 CYCLE:    52 TIME:   0.023 TIME LEFT:  2.00D  GRAD.:     2.539 HEAT: -186.6493
 CYCLE:    53 TIME:   0.016 TIME LEFT:  2.00D  GRAD.:     2.620 HEAT: -186.6570
 CYCLE:    54 TIME:   0.016 TIME LEFT:  2.00D  GRAD.:     3.680 HEAT: -186.6730
 CYCLE:    55 TIME:   0.012 TIME LEFT:  2.00D  GRAD.:     2.867 HEAT: -186.6866
 CYCLE:    56 TIME:   0.016 TIME LEFT:  2.00D  GRAD.:     4.747 HEAT: -186.6959
 CYCLE:    57 TIME:   0.012 TIME LEFT:  2.00D  GRAD.:     2.590 HEAT: -186.7070
 CYCLE:    58 TIME:   0.012 TIME LEFT:  2.00D  GRAD.:     1.919 HEAT: -186.7116
 CYCLE:    59 TIME:   0.012 TIME LEFT:  2.00D  GRAD.:     1.121 HEAT: -186.7176
 CYCLE:    60 TIME:   0.012 TIME LEFT:  2.00D  GRAD.:     3.610 HEAT: -186.7206
 CYCLE:    61 TIME:   0.012 TIME LEFT:  2.00D  GRAD.:     1.345 HEAT: -186.7241
 CYCLE:    62 TIME:   0.016 TIME LEFT:  2.00D  GRAD.:     0.859 HEAT: -186.7256

     GRADIENT =  0.85866 IS LESS THAN CUTOFF =  1.00000



 -------------------------------------------------------------------------------
 AUX LARGE CHARGE=0 SINGLET  PM7
 SOL



     GEOMETRY OPTIMISED USING EIGENVECTOR FOLLOWING (EF).     
     SCF FIELD WAS ACHIEVED                                   


                              PM7 CALCULATION
                                                       MOPAC2016 (Version: 20.225L)
                                                       Fri Feb  5 15:13:02 2021
                                                       No. of days remaining = 189




          FINAL HEAT OF FORMATION =       -186.72564 KCAL/MOL =    -781.26008 KJ/MOL


          TOTAL ENERGY            =      -2630.18454 EV
          ELECTRONIC ENERGY       =     -12797.52179 EV  POINT GROUP:     C1  
          CORE-CORE REPULSION     =      10167.33725 EV
          COSMO AREA              =        271.94 SQUARE ANGSTROMS
          COSMO VOLUME            =        249.62 CUBIC ANGSTROMS

          GRADIENT NORM           =          0.85866 = 0.15945 PER ATOM
          IONIZATION POTENTIAL    =          9.706052 EV
          HOMO LUMO ENERGIES (EV) =         -9.706 -0.822
          NO. OF FILLED LEVELS    =         39
          MOLECULAR WEIGHT        =        192.2144

          MOLECULAR DIMENSIONS (Angstroms)

            Atom       Atom       Distance
            H    29    O     2    12.17649
            H    24    H     4     7.91195
            H    23    H    26     3.42988


          SCF CALCULATIONS        =         71
 
          WALL-CLOCK TIME         =          1.066 SECONDS
          COMPUTATION TIME        =         12.444 SECONDS




   ATOM   CHEMICAL          X               Y               Z
  NUMBER   SYMBOL      (ANGSTROMS)     (ANGSTROMS)     (ANGSTROMS)
 
     1       C          1.19095423  *   2.19052224  *   0.46646292  *
     2       O          1.70661041  *   2.89961737  *   1.27558320  *
     3       O         -0.13816682  *   2.22964566  *   0.19729367  *
     4       H         -0.64425190  *   2.90497982  *   0.71737452  *
     5       C          1.85006568  *   1.12616659  *  -0.41157979  *
     6       O          3.02071125  *   1.10897467  *  -0.64711875  *
     7       O          1.04362288  *   0.16640138  *  -0.89967107  *
     8       H          0.07186174  *   0.30767758  *  -0.74171657  *
     9       C         -2.21417090  *  -4.74515792  *  -4.19768285  *
    10       N         -3.35510718  *  -5.65161820  *  -4.48621920  *
    11       N         -2.44840714  *  -4.07922380  *  -2.90409827  *
    12       C          0.30688269  *  -4.52250235  *  -4.09491035  *
    13       C         -0.86541472  *  -5.50565250  *  -4.17296862  *
    14       H         -2.19608042  *  -3.94360905  *  -4.98721972  *
    15       H         -0.83069106  *  -6.20210679  *  -3.31572698  *
    16       H         -0.77594212  *  -6.12930879  *  -5.08073569  *
    17       C          1.64267986  *  -5.27444049  *  -4.04456785  *
    18       H          0.19356779  *  -3.87660193  *  -3.19987393  *
    19       H          0.28833498  *  -3.83308493  *  -4.95869402  *
    20       C          2.81451430  *  -4.29894230  *  -3.93484883  *
    21       H          1.75807744  *  -5.90291384  *  -4.94742677  *
    22       H          1.65204660  *  -5.97111974  *  -3.18515936  *
    23       H          2.82856444  *  -3.59176134  *  -4.77143394  *
    24       H          3.77360143  *  -4.82795281  *  -3.93308271  *
    25       H          2.76157633  *  -3.71149227  *  -3.01055032  *
    26       H         -2.37857919  *  -4.71315411  *  -2.12516401  *
    27       H         -3.35964984  *  -3.64246158  *  -2.87800953  *
    28       H         -3.28684390  *  -6.54452224  *  -4.03245951  *
    29       H         -3.52594642  *  -5.78597824  *  -5.46590837  *

                             CARTESIAN COORDINATES

   1    C        1.190954228     2.190522242     0.466462916
   2    O        1.706610410     2.899617369     1.275583200
   3    O       -0.138166816     2.229645656     0.197293668
   4    H       -0.644251904     2.904979818     0.717374516
   5    C        1.850065683     1.126166589    -0.411579793
   6    O        3.020711245     1.108974670    -0.647118750
   7    O        1.043622876     0.166401383    -0.899671068
   8    H        0.071861737     0.307677579    -0.741716571
   9    C       -2.214170902    -4.745157924    -4.197682848
  10    N       -3.355107180    -5.651618195    -4.486219195
  11    N       -2.448407141    -4.079223796    -2.904098270
  12    C        0.306882691    -4.522502348    -4.094910348
  13    C       -0.865414721    -5.505652503    -4.172968616
  14    H       -2.196080423    -3.943609047    -4.987219718
  15    H       -0.830691064    -6.202106787    -3.315726978
  16    H       -0.775942122    -6.129308786    -5.080735688
  17    C        1.642679857    -5.274440488    -4.044567850
  18    H        0.193567785    -3.876601933    -3.199873933
  19    H        0.288334985    -3.833084929    -4.958694021
  20    C        2.814514298    -4.298942299    -3.934848832
  21    H        1.758077436    -5.902913837    -4.947426772
  22    H        1.652046599    -5.971119737    -3.185159358
  23    H        2.828564443    -3.591761339    -4.771433944
  24    H        3.773601428    -4.827952806    -3.933082711
  25    H        2.761576325    -3.711492268    -3.010550323
  26    H       -2.378579194    -4.713154109    -2.125164011
  27    H       -3.359649844    -3.642461580    -2.878009534
  28    H       -3.286843895    -6.544522236    -4.032459506
  29    H       -3.525946419    -5.785978241    -5.465908366


           Empirical Formula: C7 H16 N2 O4  =    29 atoms



      MOLECULAR POINT GROUP   :   C1  


                  EIGENVALUES  
 -36.62388 -34.10818 -32.75724 -32.22770 -31.62464 -30.59142 -28.78245 -25.99284
 -25.37960 -22.52171 -21.45122 -20.50466 -19.99754 -19.45827 -18.27318 -17.69270
 -17.02252 -16.35968 -16.12601 -16.01756 -15.92391 -15.73167 -15.36543 -14.87933
 -14.47767 -14.45246 -13.87894 -13.30472 -13.12560 -12.74737 -12.61466 -12.40560
 -12.08846 -12.01898 -11.72229 -11.25235 -11.17428  -9.83742  -9.70605  -0.82244
   0.51328   0.79020   1.30896   2.48108   3.19389   3.59033   3.59290   3.64750
   4.00068   4.15811   4.56161   4.58954   4.81901   4.95025   5.19716   5.46464
   5.64274   5.97184   6.05756   6.07709   6.26822   6.28358   6.37801   6.68199
   6.87903   6.90806   7.14608   7.17158


              NET ATOMIC CHARGES AND DIPOLE CONTRIBUTIONS

  ATOM NO.   TYPE          CHARGE      No. of ELECS.   s-Pop       p-Pop       
    1          C           0.510708        3.4893     1.15540     2.33389
    2          O          -0.389683        6.3897     1.87621     4.51348
    3          O          -0.582464        6.5825     1.83527     4.74719
    4          H           0.375389        0.6246     0.62461
    5          C           0.547990        3.4520     1.11827     2.33374
    6          O          -0.340201        6.3402     1.87866     4.46154
    7          O          -0.489641        6.4896     1.83432     4.65532
    8          H           0.367902        0.6321     0.63210
    9          C           0.226888        3.7731     1.07672     2.69639
   10          N          -0.728771        5.7288     1.63907     4.08970
   11          N          -0.649360        5.6494     1.64468     4.00468
   12          C          -0.260177        4.2602     1.05859     3.20159
   13          C          -0.339002        4.3390     1.07209     3.26691
   14          H           0.142458        0.8575     0.85754
   15          H           0.143029        0.8570     0.85697
   16          H           0.139762        0.8602     0.86024
   17          C          -0.251061        4.2511     1.05529     3.19577
   18          H           0.160348        0.8397     0.83965
   19          H           0.136684        0.8633     0.86332
   20          C          -0.437558        4.4376     1.05182     3.38574
   21          H           0.130472        0.8695     0.86953
   22          H           0.132788        0.8672     0.86721
   23          H           0.142490        0.8575     0.85751
   24          H           0.139055        0.8609     0.86094
   25          H           0.147084        0.8529     0.85292
   26          H           0.247580        0.7524     0.75242
   27          H           0.261683        0.7383     0.73832
   28          H           0.254901        0.7451     0.74510
   29          H           0.260706        0.7393     0.73929
 DIPOLE           X         Y         Z       TOTAL
 POINT-CHG.    -2.528    -0.232    -0.375     2.567
 HYBRID        -0.895    -1.036     0.125     1.375
 SUM           -3.424    -1.268    -0.250     3.660


          ATOMIC ORBITAL ELECTRON POPULATIONS

     Atom    s        px        py        pz   
    1  C   1.15540   0.74994   0.80392   0.78003
    2  O   1.87621   1.70454   1.44095   1.36799
    3  O   1.83527   1.37029   1.66682   1.71008
    4  H   0.62461
    5  C   1.11827   0.80925   0.77104   0.75345
    6  O   1.87866   1.22001   1.69536   1.54616
    7  O   1.83432   1.35692   1.53920   1.75920
    8  H   0.63210
    9  C   1.07672   0.84743   0.92955   0.91941
   10  N   1.63907   1.50950   1.30109   1.27910
   11  N   1.64468   1.44627   1.41990   1.13851
   12  C   1.05859   0.96748   1.05382   1.18030
   13  C   1.07209   1.02141   1.08098   1.16452
   14  H   0.85754
   15  H   0.85697
   16  H   0.86024
   17  C   1.05529   0.98429   1.05620   1.15528
   18  H   0.83965
   19  H   0.86332
   20  C   1.05182   1.08840   1.12010   1.17723
   21  H   0.86953
   22  H   0.86721
   23  H   0.85751
   24  H   0.86094
   25  H   0.85292
   26  H   0.75242
   27  H   0.73832
   28  H   0.74510
   29  H   0.73929

 **********************
 *                    *
 * JOB ENDED NORMALLY *
 *                    *
 **********************



 TOTAL JOB TIME:             1.07 SECONDS

 == MOPAC DONE ==
